# vtk DataFile Version 2.0

ASCII
DATASET UNSTRUCTURED_GRID
POINTS 25 float
0.19646918559786164 -0.21386066504962054 -0.2731485464357969
0.05131476908289123 0.21946896978556307 -0.07689353987553904
0.4807641983846155 0.1848297385848633 -0.019068098515639065
-0.10788248180584947 -0.1568219838491306 0.22904970738404162
-0.06142775532037559 -0.44032210339043165 -0.10195574466956858
0.2379954057320357 -0.3175082695465 -0.32454824385250747
0.03155137384183837 0.03182758709686606 0.13440095855132106
0.34943179407778957 0.22445532486063524 0.11102351067758287
0.22244338257022156 -0.1770410861468218 -0.1382113443776859
-0.2717367691210444 -0.20628595361117064 0.13097612385448776
-0.4078950600549248 -0.06629882732047176 -0.0691372366703562
-0.006314902349693785 -0.07416970970417203 -0.18773877702753472
-0.07364869303719179 0.3933891631171348 0.4441600182038796
0.0018366758843365583 0.12395295179211119 -0.3843816049207043
-0.1827145181796791 -0.08517378804636822 0.36630915788336593
-0.2495446346034933 -0.01696573573729565 0.485559785610705
0.019485119259809336 0.11289452576296766 -0.37937133400967626
0.32634080050683323 0.10306012841092738 0.045068006466464916
-0.1572361662256916 -0.1958792109728159 -0.0829777889752984
0.18130076579279664 0.3754568417951749 0.010422337478011134
0.16931378296227229 0.08593655256221289 0.12490350209559986
0.17468905098782483 0.3423424376202573 -0.41680501166756123
0.2636828414433382 -0.256333625463126 -0.30577703942122914
0.07245695749147307 -0.4042874833876129 0.3853268262751396
0.12724897205126873 0.22341635818995476 -0.48387079330498317
POINT_DATA 25
VECTORS grain_orientations float
-0.2917578693897834 -0.24659297168784167 -0.18641414746567597
0.4958521859045817 -0.1175227835294187 -0.8379426592505066
0.0773186176854243 -0.33089075971361603 0.9762846808481492
0.734916319511711 -0.9382550327157337 -0.04845346518381388
1.1722579351093567 7.468291576877545 -7.206319147303123
0.6793250193941432 -0.28439923095696057 -0.055931905975572516
-3.5402104843599727 -0.5270691290845202 -0.18739129413687167
0.3213695409621362 -0.597809066573296 0.5261045442339726
0.4334623088094788 -0.06202547362917975 0.08132657953932734
0.4309773740249925 -0.24433450414357116 0.9506341779239598
1.677044491508482 1.6146543384507819 2.5707661262418093
-0.42273552526347524 0.44881551996724256 0.23143831231692236
1.3700841952398177 -1.078341699648079 -0.9633672344253212
-0.5418132570017321 0.38057664843636385 -0.04348369064765023
-0.003349078403419359 0.012812251755247334 0.0015303620724478884
-3.392031188489656 1.9658906742912248 -7.432196392527427
0.19364337352558633 -0.02617633618711418 3.0857597537570225e-05
-14.01834447591655 1.4206898150685516 0.959182484320837
-1.8442178821789026 1.7390701688391488 2.772035889820104
0.05467092094523915 -0.029598260806312837 -0.01750165637568755
0.3139193447640506 -0.19335617774765423 0.001389565922989694
0.4426366600947291 0.053320613366444114 0.11060251944465549
-0.18607187774054446 -0.6520971798070986 -0.8460983314441857
-37.3957310442879 72.21251034182005 -900.8738608619827
-1.503126862235534 2.503027843943084 1.51271341247813
